# LAMMPS data file 
4608 atoms
2 atom types
5952 bonds
1 bond types
11520 angles
3 angle types

-67.9424 135.8848 xlo xhi
-67.9424 135.8848 ylo yhi
-67.9424 135.8848 zlo zhi

Atoms # full

1	0	1	0	8.4928	0	12.7392
2	0	1	0	0	8.4928	4.2464
3	0	1	0	8.4928	0	4.2464
4	0	1	0	0	8.4928	12.7392
5	0	1	0	12.7392	8.4928	0
6	0	1	0	4.2464	0	8.4928
7	0	1	0	4.2464	8.4928	0
8	0	1	0	12.7392	0	8.4928
9	0	1	0	8.4928	4.2464	0
10	0	1	0	0	12.7392	8.4928
11	0	1	0	8.4928	12.7392	0
12	0	1	0	0	4.2464	8.4928
13	0	1	0	8.4928	0	29.7248
14	0	1	0	0	8.4928	21.232
15	0	1	0	8.4928	0	21.232
16	0	1	0	0	8.4928	29.7248
17	0	1	0	12.7392	8.4928	16.9856
18	0	1	0	4.2464	0	25.4784
19	0	1	0	4.2464	8.4928	16.9856
20	0	1	0	12.7392	0	25.4784
21	0	1	0	8.4928	4.2464	16.9856
22	0	1	0	0	12.7392	25.4784
23	0	1	0	8.4928	12.7392	16.9856
24	0	1	0	0	4.2464	25.4784
25	0	1	0	8.4928	0	46.7104
26	0	1	0	0	8.4928	38.2176
27	0	1	0	8.4928	0	38.2176
28	0	1	0	0	8.4928	46.7104
29	0	1	0	12.7392	8.4928	33.9712
30	0	1	0	4.2464	0	42.464
31	0	1	0	4.2464	8.4928	33.9712
32	0	1	0	12.7392	0	42.464
33	0	1	0	8.4928	4.2464	33.9712
34	0	1	0	0	12.7392	42.464
35	0	1	0	8.4928	12.7392	33.9712
36	0	1	0	0	4.2464	42.464
37	0	1	0	8.4928	0	63.696
38	0	1	0	0	8.4928	55.2032
39	0	1	0	8.4928	0	55.2032
40	0	1	0	0	8.4928	63.696
41	0	1	0	12.7392	8.4928	50.9568
42	0	1	0	4.2464	0	59.4496
43	0	1	0	4.2464	8.4928	50.9568
44	0	1	0	12.7392	0	59.4496
45	0	1	0	8.4928	4.2464	50.9568
46	0	1	0	0	12.7392	59.4496
47	0	1	0	8.4928	12.7392	50.9568
48	0	1	0	0	4.2464	59.4496
49	0	1	0	8.4928	16.9856	12.7392
50	0	1	0	0	25.4784	4.2464
51	0	1	0	8.4928	16.9856	4.2464
52	0	1	0	0	25.4784	12.7392
53	0	1	0	12.7392	25.4784	0
54	0	1	0	4.2464	16.9856	8.4928
55	0	1	0	4.2464	25.4784	0
56	0	1	0	12.7392	16.9856	8.4928
57	0	1	0	8.4928	21.232	0
58	0	1	0	0	29.7248	8.4928
59	0	1	0	8.4928	29.7248	0
60	0	1	0	0	21.232	8.4928
61	0	1	0	8.4928	16.9856	29.7248
62	0	1	0	0	25.4784	21.232
63	0	1	0	8.4928	16.9856	21.232
64	0	1	0	0	25.4784	29.7248
65	0	1	0	12.7392	25.4784	16.9856
66	0	1	0	4.2464	16.9856	25.4784
67	0	1	0	4.2464	25.4784	16.9856
68	0	1	0	12.7392	16.9856	25.4784
69	0	1	0	8.4928	21.232	16.9856
70	0	1	0	0	29.7248	25.4784
71	0	1	0	8.4928	29.7248	16.9856
72	0	1	0	0	21.232	25.4784
73	0	1	0	8.4928	16.9856	46.7104
74	0	1	0	0	25.4784	38.2176
75	0	1	0	8.4928	16.9856	38.2176
76	0	1	0	0	25.4784	46.7104
77	0	1	0	12.7392	25.4784	33.9712
78	0	1	0	4.2464	16.9856	42.464
79	0	1	0	4.2464	25.4784	33.9712
80	0	1	0	12.7392	16.9856	42.464
81	0	1	0	8.4928	21.232	33.9712
82	0	1	0	0	29.7248	42.464
83	0	1	0	8.4928	29.7248	33.9712
84	0	1	0	0	21.232	42.464
85	0	1	0	8.4928	16.9856	63.696
86	0	1	0	0	25.4784	55.2032
87	0	1	0	8.4928	16.9856	55.2032
88	0	1	0	0	25.4784	63.696
89	0	1	0	12.7392	25.4784	50.9568
90	0	1	0	4.2464	16.9856	59.4496
91	0	1	0	4.2464	25.4784	50.9568
92	0	1	0	12.7392	16.9856	59.4496
93	0	1	0	8.4928	21.232	50.9568
94	0	1	0	0	29.7248	59.4496
95	0	1	0	8.4928	29.7248	50.9568
96	0	1	0	0	21.232	59.4496
97	0	1	0	8.4928	33.9712	12.7392
98	0	1	0	0	42.464	4.2464
99	0	1	0	8.4928	33.9712	4.2464
100	0	1	0	0	42.464	12.7392
101	0	1	0	12.7392	42.464	0
102	0	1	0	4.2464	33.9712	8.4928
103	0	1	0	4.2464	42.464	0
104	0	1	0	12.7392	33.9712	8.4928
105	0	1	0	8.4928	38.2176	0
106	0	1	0	0	46.7104	8.4928
107	0	1	0	8.4928	46.7104	0
108	0	1	0	0	38.2176	8.4928
109	0	1	0	8.4928	33.9712	29.7248
110	0	1	0	0	42.464	21.232
111	0	1	0	8.4928	33.9712	21.232
112	0	1	0	0	42.464	29.7248
113	0	1	0	12.7392	42.464	16.9856
114	0	1	0	4.2464	33.9712	25.4784
115	0	1	0	4.2464	42.464	16.9856
116	0	1	0	12.7392	33.9712	25.4784
117	0	1	0	8.4928	38.2176	16.9856
118	0	1	0	0	46.7104	25.4784
119	0	1	0	8.4928	46.7104	16.9856
120	0	1	0	0	38.2176	25.4784
121	0	1	0	8.4928	33.9712	46.7104
122	0	1	0	0	42.464	38.2176
123	0	1	0	8.4928	33.9712	38.2176
124	0	1	0	0	42.464	46.7104
125	0	1	0	12.7392	42.464	33.9712
126	0	1	0	4.2464	33.9712	42.464
127	0	1	0	4.2464	42.464	33.9712
128	0	1	0	12.7392	33.9712	42.464
129	0	1	0	8.4928	38.2176	33.9712
130	0	1	0	0	46.7104	42.464
131	0	1	0	8.4928	46.7104	33.9712
132	0	1	0	0	38.2176	42.464
133	0	1	0	8.4928	33.9712	63.696
134	0	1	0	0	42.464	55.2032
135	0	1	0	8.4928	33.9712	55.2032
136	0	1	0	0	42.464	63.696
137	0	1	0	12.7392	42.464	50.9568
138	0	1	0	4.2464	33.9712	59.4496
139	0	1	0	4.2464	42.464	50.9568
140	0	1	0	12.7392	33.9712	59.4496
141	0	1	0	8.4928	38.2176	50.9568
142	0	1	0	0	46.7104	59.4496
143	0	1	0	8.4928	46.7104	50.9568
144	0	1	0	0	38.2176	59.4496
145	0	1	0	8.4928	50.9568	12.7392
146	0	1	0	0	59.4496	4.2464
147	0	1	0	8.4928	50.9568	4.2464
148	0	1	0	0	59.4496	12.7392
149	0	1	0	12.7392	59.4496	0
150	0	1	0	4.2464	50.9568	8.4928
151	0	1	0	4.2464	59.4496	0
152	0	1	0	12.7392	50.9568	8.4928
153	0	1	0	8.4928	55.2032	0
154	0	1	0	0	63.696	8.4928
155	0	1	0	8.4928	63.696	0
156	0	1	0	0	55.2032	8.4928
157	0	1	0	8.4928	50.9568	29.7248
158	0	1	0	0	59.4496	21.232
159	0	1	0	8.4928	50.9568	21.232
160	0	1	0	0	59.4496	29.7248
161	0	1	0	12.7392	59.4496	16.9856
162	0	1	0	4.2464	50.9568	25.4784
163	0	1	0	4.2464	59.4496	16.9856
164	0	1	0	12.7392	50.9568	25.4784
165	0	1	0	8.4928	55.2032	16.9856
166	0	1	0	0	63.696	25.4784
167	0	1	0	8.4928	63.696	16.9856
168	0	1	0	0	55.2032	25.4784
169	0	1	0	8.4928	50.9568	46.7104
170	0	1	0	0	59.4496	38.2176
171	0	1	0	8.4928	50.9568	38.2176
172	0	1	0	0	59.4496	46.7104
173	0	1	0	12.7392	59.4496	33.9712
174	0	1	0	4.2464	50.9568	42.464
175	0	1	0	4.2464	59.4496	33.9712
176	0	1	0	12.7392	50.9568	42.464
177	0	1	0	8.4928	55.2032	33.9712
178	0	1	0	0	63.696	42.464
179	0	1	0	8.4928	63.696	33.9712
180	0	1	0	0	55.2032	42.464
181	0	1	0	8.4928	50.9568	63.696
182	0	1	0	0	59.4496	55.2032
183	0	1	0	8.4928	50.9568	55.2032
184	0	1	0	0	59.4496	63.696
185	0	1	0	12.7392	59.4496	50.9568
186	0	1	0	4.2464	50.9568	59.4496
187	0	1	0	4.2464	59.4496	50.9568
188	0	1	0	12.7392	50.9568	59.4496
189	0	1	0	8.4928	55.2032	50.9568
190	0	1	0	0	63.696	59.4496
191	0	1	0	8.4928	63.696	50.9568
192	0	1	0	0	55.2032	59.4496
193	0	1	0	25.4784	0	12.7392
194	0	1	0	16.9856	8.4928	4.2464
195	0	1	0	25.4784	0	4.2464
196	0	1	0	16.9856	8.4928	12.7392
197	0	1	0	29.7248	8.4928	0
198	0	1	0	21.232	0	8.4928
199	0	1	0	21.232	8.4928	0
200	0	1	0	29.7248	0	8.4928
201	0	1	0	25.4784	4.2464	0
202	0	1	0	16.9856	12.7392	8.4928
203	0	1	0	25.4784	12.7392	0
204	0	1	0	16.9856	4.2464	8.4928
205	0	1	0	25.4784	0	29.7248
206	0	1	0	16.9856	8.4928	21.232
207	0	1	0	25.4784	0	21.232
208	0	1	0	16.9856	8.4928	29.7248
209	0	1	0	29.7248	8.4928	16.9856
210	0	1	0	21.232	0	25.4784
211	0	1	0	21.232	8.4928	16.9856
212	0	1	0	29.7248	0	25.4784
213	0	1	0	25.4784	4.2464	16.9856
214	0	1	0	16.9856	12.7392	25.4784
215	0	1	0	25.4784	12.7392	16.9856
216	0	1	0	16.9856	4.2464	25.4784
217	0	1	0	25.4784	0	46.7104
218	0	1	0	16.9856	8.4928	38.2176
219	0	1	0	25.4784	0	38.2176
220	0	1	0	16.9856	8.4928	46.7104
221	0	1	0	29.7248	8.4928	33.9712
222	0	1	0	21.232	0	42.464
223	0	1	0	21.232	8.4928	33.9712
224	0	1	0	29.7248	0	42.464
225	0	1	0	25.4784	4.2464	33.9712
226	0	1	0	16.9856	12.7392	42.464
227	0	1	0	25.4784	12.7392	33.9712
228	0	1	0	16.9856	4.2464	42.464
229	0	1	0	25.4784	0	63.696
230	0	1	0	16.9856	8.4928	55.2032
231	0	1	0	25.4784	0	55.2032
232	0	1	0	16.9856	8.4928	63.696
233	0	1	0	29.7248	8.4928	50.9568
234	0	1	0	21.232	0	59.4496
235	0	1	0	21.232	8.4928	50.9568
236	0	1	0	29.7248	0	59.4496
237	0	1	0	25.4784	4.2464	50.9568
238	0	1	0	16.9856	12.7392	59.4496
239	0	1	0	25.4784	12.7392	50.9568
240	0	1	0	16.9856	4.2464	59.4496
241	0	1	0	25.4784	16.9856	12.7392
242	0	1	0	16.9856	25.4784	4.2464
243	0	1	0	25.4784	16.9856	4.2464
244	0	1	0	16.9856	25.4784	12.7392
245	0	1	0	29.7248	25.4784	0
246	0	1	0	21.232	16.9856	8.4928
247	0	1	0	21.232	25.4784	0
248	0	1	0	29.7248	16.9856	8.4928
249	0	1	0	25.4784	21.232	0
250	0	1	0	16.9856	29.7248	8.4928
251	0	1	0	25.4784	29.7248	0
252	0	1	0	16.9856	21.232	8.4928
253	0	1	0	25.4784	16.9856	29.7248
254	0	1	0	16.9856	25.4784	21.232
255	0	1	0	25.4784	16.9856	21.232
256	0	1	0	16.9856	25.4784	29.7248
257	0	1	0	29.7248	25.4784	16.9856
258	0	1	0	21.232	16.9856	25.4784
259	0	1	0	21.232	25.4784	16.9856
260	0	1	0	29.7248	16.9856	25.4784
261	0	1	0	25.4784	21.232	16.9856
262	0	1	0	16.9856	29.7248	25.4784
263	0	1	0	25.4784	29.7248	16.9856
264	0	1	0	16.9856	21.232	25.4784
265	0	1	0	25.4784	16.9856	46.7104
266	0	1	0	16.9856	25.4784	38.2176
267	0	1	0	25.4784	16.9856	38.2176
268	0	1	0	16.9856	25.4784	46.7104
269	0	1	0	29.7248	25.4784	33.9712
270	0	1	0	21.232	16.9856	42.464
271	0	1	0	21.232	25.4784	33.9712
272	0	1	0	29.7248	16.9856	42.464
273	0	1	0	25.4784	21.232	33.9712
274	0	1	0	16.9856	29.7248	42.464
275	0	1	0	25.4784	29.7248	33.9712
276	0	1	0	16.9856	21.232	42.464
277	0	1	0	25.4784	16.9856	63.696
278	0	1	0	16.9856	25.4784	55.2032
279	0	1	0	25.4784	16.9856	55.2032
280	0	1	0	16.9856	25.4784	63.696
281	0	1	0	29.7248	25.4784	50.9568
282	0	1	0	21.232	16.9856	59.4496
283	0	1	0	21.232	25.4784	50.9568
284	0	1	0	29.7248	16.9856	59.4496
285	0	1	0	25.4784	21.232	50.9568
286	0	1	0	16.9856	29.7248	59.4496
287	0	1	0	25.4784	29.7248	50.9568
288	0	1	0	16.9856	21.232	59.4496
289	0	1	0	25.4784	33.9712	12.7392
290	0	1	0	16.9856	42.464	4.2464
291	0	1	0	25.4784	33.9712	4.2464
292	0	1	0	16.9856	42.464	12.7392
293	0	1	0	29.7248	42.464	0
294	0	1	0	21.232	33.9712	8.4928
295	0	1	0	21.232	42.464	0
296	0	1	0	29.7248	33.9712	8.4928
297	0	1	0	25.4784	38.2176	0
298	0	1	0	16.9856	46.7104	8.4928
299	0	1	0	25.4784	46.7104	0
300	0	1	0	16.9856	38.2176	8.4928
301	0	1	0	25.4784	33.9712	29.7248
302	0	1	0	16.9856	42.464	21.232
303	0	1	0	25.4784	33.9712	21.232
304	0	1	0	16.9856	42.464	29.7248
305	0	1	0	29.7248	42.464	16.9856
306	0	1	0	21.232	33.9712	25.4784
307	0	1	0	21.232	42.464	16.9856
308	0	1	0	29.7248	33.9712	25.4784
309	0	1	0	25.4784	38.2176	16.9856
310	0	1	0	16.9856	46.7104	25.4784
311	0	1	0	25.4784	46.7104	16.9856
312	0	1	0	16.9856	38.2176	25.4784
313	0	1	0	25.4784	33.9712	46.7104
314	0	1	0	16.9856	42.464	38.2176
315	0	1	0	25.4784	33.9712	38.2176
316	0	1	0	16.9856	42.464	46.7104
317	0	1	0	29.7248	42.464	33.9712
318	0	1	0	21.232	33.9712	42.464
319	0	1	0	21.232	42.464	33.9712
320	0	1	0	29.7248	33.9712	42.464
321	0	1	0	25.4784	38.2176	33.9712
322	0	1	0	16.9856	46.7104	42.464
323	0	1	0	25.4784	46.7104	33.9712
324	0	1	0	16.9856	38.2176	42.464
325	0	1	0	25.4784	33.9712	63.696
326	0	1	0	16.9856	42.464	55.2032
327	0	1	0	25.4784	33.9712	55.2032
328	0	1	0	16.9856	42.464	63.696
329	0	1	0	29.7248	42.464	50.9568
330	0	1	0	21.232	33.9712	59.4496
331	0	1	0	21.232	42.464	50.9568
332	0	1	0	29.7248	33.9712	59.4496
333	0	1	0	25.4784	38.2176	50.9568
334	0	1	0	16.9856	46.7104	59.4496
335	0	1	0	25.4784	46.7104	50.9568
336	0	1	0	16.9856	38.2176	59.4496
337	0	1	0	25.4784	50.9568	12.7392
338	0	1	0	16.9856	59.4496	4.2464
339	0	1	0	25.4784	50.9568	4.2464
340	0	1	0	16.9856	59.4496	12.7392
341	0	1	0	29.7248	59.4496	0
342	0	1	0	21.232	50.9568	8.4928
343	0	1	0	21.232	59.4496	0
344	0	1	0	29.7248	50.9568	8.4928
345	0	1	0	25.4784	55.2032	0
346	0	1	0	16.9856	63.696	8.4928
347	0	1	0	25.4784	63.696	0
348	0	1	0	16.9856	55.2032	8.4928
349	0	1	0	25.4784	50.9568	29.7248
350	0	1	0	16.9856	59.4496	21.232
351	0	1	0	25.4784	50.9568	21.232
352	0	1	0	16.9856	59.4496	29.7248
353	0	1	0	29.7248	59.4496	16.9856
354	0	1	0	21.232	50.9568	25.4784
355	0	1	0	21.232	59.4496	16.9856
356	0	1	0	29.7248	50.9568	25.4784
357	0	1	0	25.4784	55.2032	16.9856
358	0	1	0	16.9856	63.696	25.4784
359	0	1	0	25.4784	63.696	16.9856
360	0	1	0	16.9856	55.2032	25.4784
361	0	1	0	25.4784	50.9568	46.7104
362	0	1	0	16.9856	59.4496	38.2176
363	0	1	0	25.4784	50.9568	38.2176
364	0	1	0	16.9856	59.4496	46.7104
365	0	1	0	29.7248	59.4496	33.9712
366	0	1	0	21.232	50.9568	42.464
367	0	1	0	21.232	59.4496	33.9712
368	0	1	0	29.7248	50.9568	42.464
369	0	1	0	25.4784	55.2032	33.9712
370	0	1	0	16.9856	63.696	42.464
371	0	1	0	25.4784	63.696	33.9712
372	0	1	0	16.9856	55.2032	42.464
373	0	1	0	25.4784	50.9568	63.696
374	0	1	0	16.9856	59.4496	55.2032
375	0	1	0	25.4784	50.9568	55.2032
376	0	1	0	16.9856	59.4496	63.696
377	0	1	0	29.7248	59.4496	50.9568
378	0	1	0	21.232	50.9568	59.4496
379	0	1	0	21.232	59.4496	50.9568
380	0	1	0	29.7248	50.9568	59.4496
381	0	1	0	25.4784	55.2032	50.9568
382	0	1	0	16.9856	63.696	59.4496
383	0	1	0	25.4784	63.696	50.9568
384	0	1	0	16.9856	55.2032	59.4496
385	0	1	0	42.464	0	12.7392
386	0	1	0	33.9712	8.4928	4.2464
387	0	1	0	42.464	0	4.2464
388	0	1	0	33.9712	8.4928	12.7392
389	0	1	0	46.7104	8.4928	0
390	0	1	0	38.2176	0	8.4928
391	0	1	0	38.2176	8.4928	0
392	0	1	0	46.7104	0	8.4928
393	0	1	0	42.464	4.2464	0
394	0	1	0	33.9712	12.7392	8.4928
395	0	1	0	42.464	12.7392	0
396	0	1	0	33.9712	4.2464	8.4928
397	0	1	0	42.464	0	29.7248
398	0	1	0	33.9712	8.4928	21.232
399	0	1	0	42.464	0	21.232
400	0	1	0	33.9712	8.4928	29.7248
401	0	1	0	46.7104	8.4928	16.9856
402	0	1	0	38.2176	0	25.4784
403	0	1	0	38.2176	8.4928	16.9856
404	0	1	0	46.7104	0	25.4784
405	0	1	0	42.464	4.2464	16.9856
406	0	1	0	33.9712	12.7392	25.4784
407	0	1	0	42.464	12.7392	16.9856
408	0	1	0	33.9712	4.2464	25.4784
409	0	1	0	42.464	0	46.7104
410	0	1	0	33.9712	8.4928	38.2176
411	0	1	0	42.464	0	38.2176
412	0	1	0	33.9712	8.4928	46.7104
413	0	1	0	46.7104	8.4928	33.9712
414	0	1	0	38.2176	0	42.464
415	0	1	0	38.2176	8.4928	33.9712
416	0	1	0	46.7104	0	42.464
417	0	1	0	42.464	4.2464	33.9712
418	0	1	0	33.9712	12.7392	42.464
419	0	1	0	42.464	12.7392	33.9712
420	0	1	0	33.9712	4.2464	42.464
421	0	1	0	42.464	0	63.696
422	0	1	0	33.9712	8.4928	55.2032
423	0	1	0	42.464	0	55.2032
424	0	1	0	33.9712	8.4928	63.696
425	0	1	0	46.7104	8.4928	50.9568
426	0	1	0	38.2176	0	59.4496
427	0	1	0	38.2176	8.4928	50.9568
428	0	1	0	46.7104	0	59.4496
429	0	1	0	42.464	4.2464	50.9568
430	0	1	0	33.9712	12.7392	59.4496
431	0	1	0	42.464	12.7392	50.9568
432	0	1	0	33.9712	4.2464	59.4496
433	0	1	0	42.464	16.9856	12.7392
434	0	1	0	33.9712	25.4784	4.2464
435	0	1	0	42.464	16.9856	4.2464
436	0	1	0	33.9712	25.4784	12.7392
437	0	1	0	46.7104	25.4784	0
438	0	1	0	38.2176	16.9856	8.4928
439	0	1	0	38.2176	25.4784	0
440	0	1	0	46.7104	16.9856	8.4928
441	0	1	0	42.464	21.232	0
442	0	1	0	33.9712	29.7248	8.4928
443	0	1	0	42.464	29.7248	0
444	0	1	0	33.9712	21.232	8.4928
445	0	1	0	42.464	16.9856	29.7248
446	0	1	0	33.9712	25.4784	21.232
447	0	1	0	42.464	16.9856	21.232
448	0	1	0	33.9712	25.4784	29.7248
449	0	1	0	46.7104	25.4784	16.9856
450	0	1	0	38.2176	16.9856	25.4784
451	0	1	0	38.2176	25.4784	16.9856
452	0	1	0	46.7104	16.9856	25.4784
453	0	1	0	42.464	21.232	16.9856
454	0	1	0	33.9712	29.7248	25.4784
455	0	1	0	42.464	29.7248	16.9856
456	0	1	0	33.9712	21.232	25.4784
457	0	1	0	42.464	16.9856	46.7104
458	0	1	0	33.9712	25.4784	38.2176
459	0	1	0	42.464	16.9856	38.2176
460	0	1	0	33.9712	25.4784	46.7104
461	0	1	0	46.7104	25.4784	33.9712
462	0	1	0	38.2176	16.9856	42.464
463	0	1	0	38.2176	25.4784	33.9712
464	0	1	0	46.7104	16.9856	42.464
465	0	1	0	42.464	21.232	33.9712
466	0	1	0	33.9712	29.7248	42.464
467	0	1	0	42.464	29.7248	33.9712
468	0	1	0	33.9712	21.232	42.464
469	0	1	0	42.464	16.9856	63.696
470	0	1	0	33.9712	25.4784	55.2032
471	0	1	0	42.464	16.9856	55.2032
472	0	1	0	33.9712	25.4784	63.696
473	0	1	0	46.7104	25.4784	50.9568
474	0	1	0	38.2176	16.9856	59.4496
475	0	1	0	38.2176	25.4784	50.9568
476	0	1	0	46.7104	16.9856	59.4496
477	0	1	0	42.464	21.232	50.9568
478	0	1	0	33.9712	29.7248	59.4496
479	0	1	0	42.464	29.7248	50.9568
480	0	1	0	33.9712	21.232	59.4496
481	0	1	0	42.464	33.9712	12.7392
482	0	1	0	33.9712	42.464	4.2464
483	0	1	0	42.464	33.9712	4.2464
484	0	1	0	33.9712	42.464	12.7392
485	0	1	0	46.7104	42.464	0
486	0	1	0	38.2176	33.9712	8.4928
487	0	1	0	38.2176	42.464	0
488	0	1	0	46.7104	33.9712	8.4928
489	0	1	0	42.464	38.2176	0
490	0	1	0	33.9712	46.7104	8.4928
491	0	1	0	42.464	46.7104	0
492	0	1	0	33.9712	38.2176	8.4928
493	0	1	0	42.464	33.9712	29.7248
494	0	1	0	33.9712	42.464	21.232
495	0	1	0	42.464	33.9712	21.232
496	0	1	0	33.9712	42.464	29.7248
497	0	1	0	46.7104	42.464	16.9856
498	0	1	0	38.2176	33.9712	25.4784
499	0	1	0	38.2176	42.464	16.9856
500	0	1	0	46.7104	33.9712	25.4784
501	0	1	0	42.464	38.2176	16.9856
502	0	1	0	33.9712	46.7104	25.4784
503	0	1	0	42.464	46.7104	16.9856
504	0	1	0	33.9712	38.2176	25.4784
505	0	1	0	42.464	33.9712	46.7104
506	0	1	0	33.9712	42.464	38.2176
507	0	1	0	42.464	33.9712	38.2176
508	0	1	0	33.9712	42.464	46.7104
509	0	1	0	46.7104	42.464	33.9712
510	0	1	0	38.2176	33.9712	42.464
511	0	1	0	38.2176	42.464	33.9712
512	0	1	0	46.7104	33.9712	42.464
513	0	1	0	42.464	38.2176	33.9712
514	0	1	0	33.9712	46.7104	42.464
515	0	1	0	42.464	46.7104	33.9712
516	0	1	0	33.9712	38.2176	42.464
517	0	1	0	42.464	33.9712	63.696
518	0	1	0	33.9712	42.464	55.2032
519	0	1	0	42.464	33.9712	55.2032
520	0	1	0	33.9712	42.464	63.696
521	0	1	0	46.7104	42.464	50.9568
522	0	1	0	38.2176	33.9712	59.4496
523	0	1	0	38.2176	42.464	50.9568
524	0	1	0	46.7104	33.9712	59.4496
525	0	1	0	42.464	38.2176	50.9568
526	0	1	0	33.9712	46.7104	59.4496
527	0	1	0	42.464	46.7104	50.9568
528	0	1	0	33.9712	38.2176	59.4496
529	0	1	0	42.464	50.9568	12.7392
530	0	1	0	33.9712	59.4496	4.2464
531	0	1	0	42.464	50.9568	4.2464
532	0	1	0	33.9712	59.4496	12.7392
533	0	1	0	46.7104	59.4496	0
534	0	1	0	38.2176	50.9568	8.4928
535	0	1	0	38.2176	59.4496	0
536	0	1	0	46.7104	50.9568	8.4928
537	0	1	0	42.464	55.2032	0
538	0	1	0	33.9712	63.696	8.4928
539	0	1	0	42.464	63.696	0
540	0	1	0	33.9712	55.2032	8.4928
541	0	1	0	42.464	50.9568	29.7248
542	0	1	0	33.9712	59.4496	21.232
543	0	1	0	42.464	50.9568	21.232
544	0	1	0	33.9712	59.4496	29.7248
545	0	1	0	46.7104	59.4496	16.9856
546	0	1	0	38.2176	50.9568	25.4784
547	0	1	0	38.2176	59.4496	16.9856
548	0	1	0	46.7104	50.9568	25.4784
549	0	1	0	42.464	55.2032	16.9856
550	0	1	0	33.9712	63.696	25.4784
551	0	1	0	42.464	63.696	16.9856
552	0	1	0	33.9712	55.2032	25.4784
553	0	1	0	42.464	50.9568	46.7104
554	0	1	0	33.9712	59.4496	38.2176
555	0	1	0	42.464	50.9568	38.2176
556	0	1	0	33.9712	59.4496	46.7104
557	0	1	0	46.7104	59.4496	33.9712
558	0	1	0	38.2176	50.9568	42.464
559	0	1	0	38.2176	59.4496	33.9712
560	0	1	0	46.7104	50.9568	42.464
561	0	1	0	42.464	55.2032	33.9712
562	0	1	0	33.9712	63.696	42.464
563	0	1	0	42.464	63.696	33.9712
564	0	1	0	33.9712	55.2032	42.464
565	0	1	0	42.464	50.9568	63.696
566	0	1	0	33.9712	59.4496	55.2032
567	0	1	0	42.464	50.9568	55.2032
568	0	1	0	33.9712	59.4496	63.696
569	0	1	0	46.7104	59.4496	50.9568
570	0	1	0	38.2176	50.9568	59.4496
571	0	1	0	38.2176	59.4496	50.9568
572	0	1	0	46.7104	50.9568	59.4496
573	0	1	0	42.464	55.2032	50.9568
574	0	1	0	33.9712	63.696	59.4496
575	0	1	0	42.464	63.696	50.9568
576	0	1	0	33.9712	55.2032	59.4496
577	0	1	0	59.4496	0	12.7392
578	0	1	0	50.9568	8.4928	4.2464
579	0	1	0	59.4496	0	4.2464
580	0	1	0	50.9568	8.4928	12.7392
581	0	1	0	63.696	8.4928	0
582	0	1	0	55.2032	0	8.4928
583	0	1	0	55.2032	8.4928	0
584	0	1	0	63.696	0	8.4928
585	0	1	0	59.4496	4.2464	0
586	0	1	0	50.9568	12.7392	8.4928
587	0	1	0	59.4496	12.7392	0
588	0	1	0	50.9568	4.2464	8.4928
589	0	1	0	59.4496	0	29.7248
590	0	1	0	50.9568	8.4928	21.232
591	0	1	0	59.4496	0	21.232
592	0	1	0	50.9568	8.4928	29.7248
593	0	1	0	63.696	8.4928	16.9856
594	0	1	0	55.2032	0	25.4784
595	0	1	0	55.2032	8.4928	16.9856
596	0	1	0	63.696	0	25.4784
597	0	1	0	59.4496	4.2464	16.9856
598	0	1	0	50.9568	12.7392	25.4784
599	0	1	0	59.4496	12.7392	16.9856
600	0	1	0	50.9568	4.2464	25.4784
601	0	1	0	59.4496	0	46.7104
602	0	1	0	50.9568	8.4928	38.2176
603	0	1	0	59.4496	0	38.2176
604	0	1	0	50.9568	8.4928	46.7104
605	0	1	0	63.696	8.4928	33.9712
606	0	1	0	55.2032	0	42.464
607	0	1	0	55.2032	8.4928	33.9712
608	0	1	0	63.696	0	42.464
609	0	1	0	59.4496	4.2464	33.9712
610	0	1	0	50.9568	12.7392	42.464
611	0	1	0	59.4496	12.7392	33.9712
612	0	1	0	50.9568	4.2464	42.464
613	0	1	0	59.4496	0	63.696
614	0	1	0	50.9568	8.4928	55.2032
615	0	1	0	59.4496	0	55.2032
616	0	1	0	50.9568	8.4928	63.696
617	0	1	0	63.696	8.4928	50.9568
618	0	1	0	55.2032	0	59.4496
619	0	1	0	55.2032	8.4928	50.9568
620	0	1	0	63.696	0	59.4496
621	0	1	0	59.4496	4.2464	50.9568
622	0	1	0	50.9568	12.7392	59.4496
623	0	1	0	59.4496	12.7392	50.9568
624	0	1	0	50.9568	4.2464	59.4496
625	0	1	0	59.4496	16.9856	12.7392
626	0	1	0	50.9568	25.4784	4.2464
627	0	1	0	59.4496	16.9856	4.2464
628	0	1	0	50.9568	25.4784	12.7392
629	0	1	0	63.696	25.4784	0
630	0	1	0	55.2032	16.9856	8.4928
631	0	1	0	55.2032	25.4784	0
632	0	1	0	63.696	16.9856	8.4928
633	0	1	0	59.4496	21.232	0
634	0	1	0	50.9568	29.7248	8.4928
635	0	1	0	59.4496	29.7248	0
636	0	1	0	50.9568	21.232	8.4928
637	0	1	0	59.4496	16.9856	29.7248
638	0	1	0	50.9568	25.4784	21.232
639	0	1	0	59.4496	16.9856	21.232
640	0	1	0	50.9568	25.4784	29.7248
641	0	1	0	63.696	25.4784	16.9856
642	0	1	0	55.2032	16.9856	25.4784
643	0	1	0	55.2032	25.4784	16.9856
644	0	1	0	63.696	16.9856	25.4784
645	0	1	0	59.4496	21.232	16.9856
646	0	1	0	50.9568	29.7248	25.4784
647	0	1	0	59.4496	29.7248	16.9856
648	0	1	0	50.9568	21.232	25.4784
649	0	1	0	59.4496	16.9856	46.7104
650	0	1	0	50.9568	25.4784	38.2176
651	0	1	0	59.4496	16.9856	38.2176
652	0	1	0	50.9568	25.4784	46.7104
653	0	1	0	63.696	25.4784	33.9712
654	0	1	0	55.2032	16.9856	42.464
655	0	1	0	55.2032	25.4784	33.9712
656	0	1	0	63.696	16.9856	42.464
657	0	1	0	59.4496	21.232	33.9712
658	0	1	0	50.9568	29.7248	42.464
659	0	1	0	59.4496	29.7248	33.9712
660	0	1	0	50.9568	21.232	42.464
661	0	1	0	59.4496	16.9856	63.696
662	0	1	0	50.9568	25.4784	55.2032
663	0	1	0	59.4496	16.9856	55.2032
664	0	1	0	50.9568	25.4784	63.696
665	0	1	0	63.696	25.4784	50.9568
666	0	1	0	55.2032	16.9856	59.4496
667	0	1	0	55.2032	25.4784	50.9568
668	0	1	0	63.696	16.9856	59.4496
669	0	1	0	59.4496	21.232	50.9568
670	0	1	0	50.9568	29.7248	59.4496
671	0	1	0	59.4496	29.7248	50.9568
672	0	1	0	50.9568	21.232	59.4496
673	0	1	0	59.4496	33.9712	12.7392
674	0	1	0	50.9568	42.464	4.2464
675	0	1	0	59.4496	33.9712	4.2464
676	0	1	0	50.9568	42.464	12.7392
677	0	1	0	63.696	42.464	0
678	0	1	0	55.2032	33.9712	8.4928
679	0	1	0	55.2032	42.464	0
680	0	1	0	63.696	33.9712	8.4928
681	0	1	0	59.4496	38.2176	0
682	0	1	0	50.9568	46.7104	8.4928
683	0	1	0	59.4496	46.7104	0
684	0	1	0	50.9568	38.2176	8.4928
685	0	1	0	59.4496	33.9712	29.7248
686	0	1	0	50.9568	42.464	21.232
687	0	1	0	59.4496	33.9712	21.232
688	0	1	0	50.9568	42.464	29.7248
689	0	1	0	63.696	42.464	16.9856
690	0	1	0	55.2032	33.9712	25.4784
691	0	1	0	55.2032	42.464	16.9856
692	0	1	0	63.696	33.9712	25.4784
693	0	1	0	59.4496	38.2176	16.9856
694	0	1	0	50.9568	46.7104	25.4784
695	0	1	0	59.4496	46.7104	16.9856
696	0	1	0	50.9568	38.2176	25.4784
697	0	1	0	59.4496	33.9712	46.7104
698	0	1	0	50.9568	42.464	38.2176
699	0	1	0	59.4496	33.9712	38.2176
700	0	1	0	50.9568	42.464	46.7104
701	0	1	0	63.696	42.464	33.9712
702	0	1	0	55.2032	33.9712	42.464
703	0	1	0	55.2032	42.464	33.9712
704	0	1	0	63.696	33.9712	42.464
705	0	1	0	59.4496	38.2176	33.9712
706	0	1	0	50.9568	46.7104	42.464
707	0	1	0	59.4496	46.7104	33.9712
708	0	1	0	50.9568	38.2176	42.464
709	0	1	0	59.4496	33.9712	63.696
710	0	1	0	50.9568	42.464	55.2032
711	0	1	0	59.4496	33.9712	55.2032
712	0	1	0	50.9568	42.464	63.696
713	0	1	0	63.696	42.464	50.9568
714	0	1	0	55.2032	33.9712	59.4496
715	0	1	0	55.2032	42.464	50.9568
716	0	1	0	63.696	33.9712	59.4496
717	0	1	0	59.4496	38.2176	50.9568
718	0	1	0	50.9568	46.7104	59.4496
719	0	1	0	59.4496	46.7104	50.9568
720	0	1	0	50.9568	38.2176	59.4496
721	0	1	0	59.4496	50.9568	12.7392
722	0	1	0	50.9568	59.4496	4.2464
723	0	1	0	59.4496	50.9568	4.2464
724	0	1	0	50.9568	59.4496	12.7392
725	0	1	0	63.696	59.4496	0
726	0	1	0	55.2032	50.9568	8.4928
727	0	1	0	55.2032	59.4496	0
728	0	1	0	63.696	50.9568	8.4928
729	0	1	0	59.4496	55.2032	0
730	0	1	0	50.9568	63.696	8.4928
731	0	1	0	59.4496	63.696	0
732	0	1	0	50.9568	55.2032	8.4928
733	0	1	0	59.4496	50.9568	29.7248
734	0	1	0	50.9568	59.4496	21.232
735	0	1	0	59.4496	50.9568	21.232
736	0	1	0	50.9568	59.4496	29.7248
737	0	1	0	63.696	59.4496	16.9856
738	0	1	0	55.2032	50.9568	25.4784
739	0	1	0	55.2032	59.4496	16.9856
740	0	1	0	63.696	50.9568	25.4784
741	0	1	0	59.4496	55.2032	16.9856
742	0	1	0	50.9568	63.696	25.4784
743	0	1	0	59.4496	63.696	16.9856
744	0	1	0	50.9568	55.2032	25.4784
745	0	1	0	59.4496	50.9568	46.7104
746	0	1	0	50.9568	59.4496	38.2176
747	0	1	0	59.4496	50.9568	38.2176
748	0	1	0	50.9568	59.4496	46.7104
749	0	1	0	63.696	59.4496	33.9712
750	0	1	0	55.2032	50.9568	42.464
751	0	1	0	55.2032	59.4496	33.9712
752	0	1	0	63.696	50.9568	42.464
753	0	1	0	59.4496	55.2032	33.9712
754	0	1	0	50.9568	63.696	42.464
755	0	1	0	59.4496	63.696	33.9712
756	0	1	0	50.9568	55.2032	42.464
757	0	1	0	59.4496	50.9568	63.696
758	0	1	0	50.9568	59.4496	55.2032
759	0	1	0	59.4496	50.9568	55.2032
760	0	1	0	50.9568	59.4496	63.696
761	0	1	0	63.696	59.4496	50.9568
762	0	1	0	55.2032	50.9568	59.4496
763	0	1	0	55.2032	59.4496	50.9568
764	0	1	0	63.696	50.9568	59.4496
765	0	1	0	59.4496	55.2032	50.9568
766	0	1	0	50.9568	63.696	59.4496
767	0	1	0	59.4496	63.696	50.9568
768	0	1	0	50.9568	55.2032	59.4496
769	0	1	0	67.9424	8.4928	4.2464
770	0	1	0	67.9424	8.4928	12.7392
771	0	1	0	67.9424	12.7392	8.4928
772	0	1	0	67.9424	4.2464	8.4928
773	0	1	0	67.9424	8.4928	21.232
774	0	1	0	67.9424	8.4928	29.7248
775	0	1	0	72.1888	8.4928	16.9856
776	0	1	0	67.9424	12.7392	25.4784
777	0	1	0	76.4352	12.7392	16.9856
778	0	1	0	67.9424	4.2464	25.4784
779	0	1	0	67.9424	8.4928	38.2176
780	0	1	0	67.9424	8.4928	46.7104
781	0	1	0	72.1888	8.4928	33.9712
782	0	1	0	67.9424	12.7392	42.464
783	0	1	0	76.4352	12.7392	33.9712
784	0	1	0	67.9424	4.2464	42.464
785	0	1	0	67.9424	8.4928	55.2032
786	0	1	0	67.9424	8.4928	63.696
787	0	1	0	72.1888	8.4928	50.9568
788	0	1	0	67.9424	12.7392	59.4496
789	0	1	0	76.4352	12.7392	50.9568
790	0	1	0	67.9424	4.2464	59.4496
791	0	1	0	76.4352	16.9856	12.7392
792	0	1	0	67.9424	25.4784	4.2464
793	0	1	0	67.9424	25.4784	12.7392
794	0	1	0	72.1888	16.9856	8.4928
795	0	1	0	67.9424	29.7248	8.4928
796	0	1	0	67.9424	21.232	8.4928
797	0	1	0	76.4352	16.9856	29.7248
798	0	1	0	67.9424	25.4784	21.232
799	0	1	0	76.4352	16.9856	21.232
800	0	1	0	67.9424	25.4784	29.7248
801	0	1	0	80.6816	25.4784	16.9856
802	0	1	0	72.1888	16.9856	25.4784
803	0	1	0	72.1888	25.4784	16.9856
804	0	1	0	80.6816	16.9856	25.4784
805	0	1	0	76.4352	21.232	16.9856
806	0	1	0	67.9424	29.7248	25.4784
807	0	1	0	76.4352	29.7248	16.9856
808	0	1	0	67.9424	21.232	25.4784
809	0	1	0	76.4352	16.9856	46.7104
810	0	1	0	67.9424	25.4784	38.2176
811	0	1	0	76.4352	16.9856	38.2176
812	0	1	0	67.9424	25.4784	46.7104
813	0	1	0	80.6816	25.4784	33.9712
814	0	1	0	72.1888	16.9856	42.464
815	0	1	0	72.1888	25.4784	33.9712
816	0	1	0	80.6816	16.9856	42.464
817	0	1	0	76.4352	21.232	33.9712
818	0	1	0	67.9424	29.7248	42.464
819	0	1	0	76.4352	29.7248	33.9712
820	0	1	0	67.9424	21.232	42.464
821	0	1	0	67.9424	25.4784	55.2032
822	0	1	0	76.4352	16.9856	55.2032
823	0	1	0	67.9424	25.4784	63.696
824	0	1	0	80.6816	25.4784	50.9568
825	0	1	0	72.1888	16.9856	59.4496
826	0	1	0	72.1888	25.4784	50.9568
827	0	1	0	76.4352	21.232	50.9568
828	0	1	0	67.9424	29.7248	59.4496
829	0	1	0	76.4352	29.7248	50.9568
830	0	1	0	67.9424	21.232	59.4496
831	0	1	0	76.4352	33.9712	12.7392
832	0	1	0	67.9424	42.464	4.2464
833	0	1	0	67.9424	42.464	12.7392
834	0	1	0	72.1888	33.9712	8.4928
835	0	1	0	67.9424	46.7104	8.4928
836	0	1	0	67.9424	38.2176	8.4928
837	0	1	0	76.4352	33.9712	29.7248
838	0	1	0	67.9424	42.464	21.232
839	0	1	0	76.4352	33.9712	21.232
840	0	1	0	67.9424	42.464	29.7248
841	0	1	0	80.6816	42.464	16.9856
842	0	1	0	72.1888	33.9712	25.4784
843	0	1	0	72.1888	42.464	16.9856
844	0	1	0	80.6816	33.9712	25.4784
845	0	1	0	76.4352	38.2176	16.9856
846	0	1	0	67.9424	46.7104	25.4784
847	0	1	0	76.4352	46.7104	16.9856
848	0	1	0	67.9424	38.2176	25.4784
849	0	1	0	76.4352	33.9712	46.7104
850	0	1	0	67.9424	42.464	38.2176
851	0	1	0	76.4352	33.9712	38.2176
852	0	1	0	67.9424	42.464	46.7104
853	0	1	0	80.6816	42.464	33.9712
854	0	1	0	72.1888	33.9712	42.464
855	0	1	0	72.1888	42.464	33.9712
856	0	1	0	80.6816	33.9712	42.464
857	0	1	0	76.4352	38.2176	33.9712
858	0	1	0	67.9424	46.7104	42.464
859	0	1	0	76.4352	46.7104	33.9712
860	0	1	0	67.9424	38.2176	42.464
861	0	1	0	67.9424	42.464	55.2032
862	0	1	0	76.4352	33.9712	55.2032
863	0	1	0	67.9424	42.464	63.696
864	0	1	0	80.6816	42.464	50.9568
865	0	1	0	72.1888	33.9712	59.4496
866	0	1	0	72.1888	42.464	50.9568
867	0	1	0	76.4352	38.2176	50.9568
868	0	1	0	67.9424	46.7104	59.4496
869	0	1	0	76.4352	46.7104	50.9568
870	0	1	0	67.9424	38.2176	59.4496
871	0	1	0	76.4352	50.9568	12.7392
872	0	1	0	67.9424	59.4496	4.2464
873	0	1	0	67.9424	59.4496	12.7392
874	0	1	0	72.1888	50.9568	8.4928
875	0	1	0	67.9424	63.696	8.4928
876	0	1	0	67.9424	55.2032	8.4928
877	0	1	0	76.4352	50.9568	29.7248
878	0	1	0	67.9424	59.4496	21.232
879	0	1	0	76.4352	50.9568	21.232
880	0	1	0	67.9424	59.4496	29.7248
881	0	1	0	72.1888	50.9568	25.4784
882	0	1	0	72.1888	59.4496	16.9856
883	0	1	0	80.6816	50.9568	25.4784
884	0	1	0	76.4352	55.2032	16.9856
885	0	1	0	67.9424	63.696	25.4784
886	0	1	0	67.9424	55.2032	25.4784
887	0	1	0	76.4352	50.9568	46.7104
888	0	1	0	67.9424	59.4496	38.2176
889	0	1	0	76.4352	50.9568	38.2176
890	0	1	0	67.9424	59.4496	46.7104
891	0	1	0	72.1888	50.9568	42.464
892	0	1	0	72.1888	59.4496	33.9712
893	0	1	0	80.6816	50.9568	42.464
894	0	1	0	76.4352	55.2032	33.9712
895	0	1	0	67.9424	63.696	42.464
896	0	1	0	67.9424	55.2032	42.464
897	0	1	0	67.9424	59.4496	55.2032
898	0	1	0	76.4352	50.9568	55.2032
899	0	1	0	67.9424	59.4496	63.696
900	0	1	0	72.1888	50.9568	59.4496
901	0	1	0	72.1888	59.4496	50.9568
902	0	1	0	76.4352	55.2032	50.9568
903	0	1	0	67.9424	63.696	59.4496
904	0	1	0	67.9424	55.2032	59.4496
905	0	1	0	84.928	25.4784	21.232
906	0	1	0	84.928	25.4784	29.7248
907	0	1	0	84.928	29.7248	25.4784
908	0	1	0	84.928	21.232	25.4784
909	0	1	0	84.928	25.4784	38.2176
910	0	1	0	84.928	25.4784	46.7104
911	0	1	0	89.1744	25.4784	33.9712
912	0	1	0	84.928	29.7248	42.464
913	0	1	0	93.4208	29.7248	33.9712
914	0	1	0	84.928	21.232	42.464
915	0	1	0	93.4208	33.9712	29.7248
916	0	1	0	84.928	42.464	21.232
917	0	1	0	84.928	42.464	29.7248
918	0	1	0	89.1744	33.9712	25.4784
919	0	1	0	84.928	46.7104	25.4784
920	0	1	0	84.928	38.2176	25.4784
921	0	1	0	84.928	42.464	38.2176
922	0	1	0	93.4208	33.9712	38.2176
923	0	1	0	84.928	42.464	46.7104
924	0	1	0	89.1744	33.9712	42.464
925	0	1	0	89.1744	42.464	33.9712
926	0	1	0	93.4208	38.2176	33.9712
927	0	1	0	84.928	46.7104	42.464
928	0	1	0	84.928	38.2176	42.464
929	0	1	0	-21.232	25.4784	33.9712
930	0	1	0	-25.4784	29.7248	33.9712
931	0	1	0	-25.4784	33.9712	29.7248
932	0	1	0	-21.232	33.9712	25.4784
933	0	1	0	-25.4784	33.9712	38.2176
934	0	1	0	-21.232	42.464	33.9712
935	0	1	0	-21.232	33.9712	42.464
936	0	1	0	-25.4784	38.2176	33.9712