# LAMMPS data file written by OVITO Basic 3.7.4
576 atoms
2 atom types
720 bonds
1 bond types
1344 angles
3 angle types

-16.9856 50.9568 xlo xhi
-16.9856 50.9568 ylo yhi
-16.9856 50.9568 zlo zhi

Atoms # full

1	0	1	0	8.4928	0	12.7392
2	0	1	0	0	8.4928	4.2464
3	0	1	0	8.4928	0	4.2464
4	0	1	0	0	8.4928	12.7392
5	0	1	0	12.7392	8.4928	0
6	0	1	0	4.2464	0	8.4928
7	0	1	0	4.2464	8.4928	0
8	0	1	0	12.7392	0	8.4928
9	0	1	0	8.4928	4.2464	0
10	0	1	0	0	12.7392	8.4928
11	0	1	0	8.4928	12.7392	0
12	0	1	0	0	4.2464	8.4928
13	0	1	0	8.4928	0	29.7248
14	0	1	0	0	8.4928	21.232
15	0	1	0	8.4928	0	21.232
16	0	1	0	0	8.4928	29.7248
17	0	1	0	12.7392	8.4928	16.9856
18	0	1	0	4.2464	0	25.4784
19	0	1	0	4.2464	8.4928	16.9856
20	0	1	0	12.7392	0	25.4784
21	0	1	0	8.4928	4.2464	16.9856
22	0	1	0	0	12.7392	25.4784
23	0	1	0	8.4928	12.7392	16.9856
24	0	1	0	0	4.2464	25.4784
25	0	1	0	8.4928	16.9856	12.7392
26	0	1	0	0	25.4784	4.2464
27	0	1	0	8.4928	16.9856	4.2464
28	0	1	0	0	25.4784	12.7392
29	0	1	0	12.7392	25.4784	0
30	0	1	0	4.2464	16.9856	8.4928
31	0	1	0	4.2464	25.4784	0
32	0	1	0	12.7392	16.9856	8.4928
33	0	1	0	8.4928	21.232	0
34	0	1	0	0	29.7248	8.4928
35	0	1	0	8.4928	29.7248	0
36	0	1	0	0	21.232	8.4928
37	0	1	0	8.4928	16.9856	29.7248
38	0	1	0	0	25.4784	21.232
39	0	1	0	8.4928	16.9856	21.232
40	0	1	0	0	25.4784	29.7248
41	0	1	0	12.7392	25.4784	16.9856
42	0	1	0	4.2464	16.9856	25.4784
43	0	1	0	4.2464	25.4784	16.9856
44	0	1	0	12.7392	16.9856	25.4784
45	0	1	0	8.4928	21.232	16.9856
46	0	1	0	0	29.7248	25.4784
47	0	1	0	8.4928	29.7248	16.9856
48	0	1	0	0	21.232	25.4784
49	0	1	0	25.4784	0	12.7392
50	0	1	0	16.9856	8.4928	4.2464
51	0	1	0	25.4784	0	4.2464
52	0	1	0	16.9856	8.4928	12.7392
53	0	1	0	29.7248	8.4928	0
54	0	1	0	21.232	0	8.4928
55	0	1	0	21.232	8.4928	0
56	0	1	0	29.7248	0	8.4928
57	0	1	0	25.4784	4.2464	0
58	0	1	0	16.9856	12.7392	8.4928
59	0	1	0	25.4784	12.7392	0
60	0	1	0	16.9856	4.2464	8.4928
61	0	1	0	25.4784	0	29.7248
62	0	1	0	16.9856	8.4928	21.232
63	0	1	0	25.4784	0	21.232
64	0	1	0	16.9856	8.4928	29.7248
65	0	1	0	29.7248	8.4928	16.9856
66	0	1	0	21.232	0	25.4784
67	0	1	0	21.232	8.4928	16.9856
68	0	1	0	29.7248	0	25.4784
69	0	1	0	25.4784	4.2464	16.9856
70	0	1	0	16.9856	12.7392	25.4784
71	0	1	0	25.4784	12.7392	16.9856
72	0	1	0	16.9856	4.2464	25.4784
73	0	1	0	25.4784	16.9856	12.7392
74	0	1	0	16.9856	25.4784	4.2464
75	0	1	0	25.4784	16.9856	4.2464
76	0	1	0	16.9856	25.4784	12.7392
77	0	1	0	29.7248	25.4784	0
78	0	1	0	21.232	16.9856	8.4928
79	0	1	0	21.232	25.4784	0
80	0	1	0	29.7248	16.9856	8.4928
81	0	1	0	25.4784	21.232	0
82	0	1	0	16.9856	29.7248	8.4928
83	0	1	0	25.4784	29.7248	0
84	0	1	0	16.9856	21.232	8.4928
85	0	1	0	25.4784	16.9856	29.7248
86	0	1	0	16.9856	25.4784	21.232
87	0	1	0	25.4784	16.9856	21.232
88	0	1	0	16.9856	25.4784	29.7248
89	0	1	0	29.7248	25.4784	16.9856
90	0	1	0	21.232	16.9856	25.4784
91	0	1	0	21.232	25.4784	16.9856
92	0	1	0	29.7248	16.9856	25.4784
93	0	1	0	25.4784	21.232	16.9856
94	0	1	0	16.9856	29.7248	25.4784
95	0	1	0	25.4784	29.7248	16.9856
96	0	1	0	16.9856	21.232	25.4784
97	0	1	0	33.9712	8.4928	4.2464
98	0	1	0	33.9712	8.4928	12.7392
99	0	1	0	33.9712	12.7392	8.4928
100	0	1	0	33.9712	4.2464	8.4928
101	0	1	0	33.9712	8.4928	21.232
102	0	1	0	33.9712	8.4928	29.7248
103	0	1	0	38.2176	8.4928	16.9856
104	0	1	0	33.9712	12.7392	25.4784
105	0	1	0	42.464	12.7392	16.9856
106	0	1	0	33.9712	4.2464	25.4784
107	0	1	0	42.464	16.9856	12.7392
108	0	1	0	33.9712	25.4784	4.2464
109	0	1	0	33.9712	25.4784	12.7392
110	0	1	0	38.2176	16.9856	8.4928
111	0	1	0	33.9712	29.7248	8.4928
112	0	1	0	33.9712	21.232	8.4928
113	0	1	0	33.9712	25.4784	21.232
114	0	1	0	42.464	16.9856	21.232
115	0	1	0	33.9712	25.4784	29.7248
116	0	1	0	38.2176	16.9856	25.4784
117	0	1	0	38.2176	25.4784	16.9856
118	0	1	0	42.464	21.232	16.9856
119	0	1	0	33.9712	29.7248	25.4784
120	0	1	0	33.9712	21.232	25.4784
121	0	1	0	-4.2464	8.4928	16.9856
122	0	1	0	-8.4928	12.7392	16.9856
123	0	1	0	-8.4928	16.9856	12.7392
124	0	1	0	-4.2464	16.9856	8.4928
125	0	1	0	-8.4928	16.9856	21.232
126	0	1	0	-4.2464	25.4784	16.9856
127	0	1	0	-4.2464	16.9856	25.4784
128	0	1	0	-8.4928	21.232	16.9856
129	0	1	0	8.4928	33.9712	12.7392
130	0	1	0	8.4928	33.9712	4.2464
131	0	1	0	4.2464	33.9712	8.4928
132	0	1	0	12.7392	33.9712	8.4928
133	0	1	0	8.4928	33.9712	29.7248
134	0	1	0	8.4928	33.9712	21.232
135	0	1	0	12.7392	42.464	16.9856
136	0	1	0	4.2464	33.9712	25.4784
137	0	1	0	12.7392	33.9712	25.4784
138	0	1	0	8.4928	38.2176	16.9856
139	0	1	0	25.4784	33.9712	12.7392
140	0	1	0	25.4784	33.9712	4.2464
141	0	1	0	16.9856	42.464	12.7392
142	0	1	0	21.232	33.9712	8.4928
143	0	1	0	29.7248	33.9712	8.4928
144	0	1	0	16.9856	38.2176	8.4928
145	0	1	0	25.4784	33.9712	29.7248
146	0	1	0	16.9856	42.464	21.232
147	0	1	0	25.4784	33.9712	21.232
148	0	1	0	21.232	33.9712	25.4784
149	0	1	0	21.232	42.464	16.9856
150	0	1	0	29.7248	33.9712	25.4784
151	0	1	0	25.4784	38.2176	16.9856
152	0	1	0	16.9856	38.2176	25.4784
153	0	1	0	12.7392	-8.4928	16.9856
154	0	1	0	8.4928	-4.2464	16.9856
155	0	1	0	16.9856	-8.4928	12.7392
156	0	1	0	16.9856	-4.2464	8.4928
157	0	1	0	16.9856	-8.4928	21.232
158	0	1	0	21.232	-8.4928	16.9856
159	0	1	0	16.9856	-4.2464	25.4784
160	0	1	0	25.4784	-4.2464	16.9856
161	0	1	0	12.7392	8.4928	33.9712
162	0	1	0	4.2464	8.4928	33.9712
163	0	1	0	8.4928	4.2464	33.9712
164	0	1	0	8.4928	12.7392	33.9712
165	0	1	0	8.4928	16.9856	38.2176
166	0	1	0	12.7392	25.4784	33.9712
167	0	1	0	4.2464	25.4784	33.9712
168	0	1	0	12.7392	16.9856	42.464
169	0	1	0	8.4928	21.232	33.9712
170	0	1	0	8.4928	29.7248	33.9712
171	0	1	0	16.9856	8.4928	38.2176
172	0	1	0	29.7248	8.4928	33.9712
173	0	1	0	21.232	8.4928	33.9712
174	0	1	0	25.4784	4.2464	33.9712
175	0	1	0	16.9856	12.7392	42.464
176	0	1	0	25.4784	12.7392	33.9712
177	0	1	0	16.9856	25.4784	38.2176
178	0	1	0	25.4784	16.9856	38.2176
179	0	1	0	29.7248	25.4784	33.9712
180	0	1	0	21.232	16.9856	42.464
181	0	1	0	21.232	25.4784	33.9712
182	0	1	0	25.4784	21.232	33.9712
183	0	1	0	25.4784	29.7248	33.9712
184	0	1	0	16.9856	21.232	42.464
185	0	1	0	8.4928	16.9856	-4.2464
186	0	1	0	12.7392	16.9856	-8.4928
187	0	1	0	16.9856	8.4928	-4.2464
188	0	1	0	16.9856	12.7392	-8.4928
189	0	1	0	25.4784	16.9856	-4.2464
190	0	1	0	16.9856	25.4784	-4.2464
191	0	1	0	21.232	16.9856	-8.4928
192	0	1	0	16.9856	21.232	-8.4928
193	0	2	0	23.2031	16.5259	27.7537
194	0	2	0	33.5115	10.7681	23.2031
195	0	2	0	27.7537	0.45966	27.7537
196	0	2	0	17.4453	6.21746	23.2031
197	0	2	0	23.2031	0.45966	23.2031
198	0	2	0	33.5115	6.21746	27.7537
199	0	2	0	27.7537	16.5259	23.2031
200	0	2	0	17.4453	10.7681	27.7537
201	0	2	0	27.7537	6.21746	33.5115
202	0	2	0	27.7537	10.7681	17.4453
203	0	2	0	23.2031	6.21746	17.4453
204	0	2	0	23.2031	10.7681	33.5115
205	0	2	0	31.6959	8.03314	19.2609
206	0	2	0	25.0187	2.27534	31.6959
207	0	2	0	19.2609	8.95246	19.2609
208	0	2	0	25.9381	14.7103	31.6959
209	0	2	0	31.6959	8.95246	31.6959
210	0	2	0	25.0187	14.7103	19.2609
211	0	2	0	19.2609	8.03314	31.6959
212	0	2	0	25.9381	2.27534	19.2609
213	0	2	0	19.2609	14.7103	25.0187
214	0	2	0	19.2609	2.27534	25.9381
215	0	2	0	31.6959	14.7103	25.9381
216	0	2	0	31.6959	2.27534	25.0187
217	0	2	0	14.7103	8.03314	2.27534
218	0	2	0	8.03314	2.27534	14.7103
219	0	2	0	2.27534	8.95246	2.27534
220	0	2	0	8.95246	14.7103	14.7103
221	0	2	0	14.7103	8.95246	14.7103
222	0	2	0	8.03314	14.7103	2.27534
223	0	2	0	2.27534	8.03314	14.7103
224	0	2	0	8.95246	2.27534	2.27534
225	0	2	0	2.27534	14.7103	8.03314
226	0	2	0	2.27534	2.27534	8.95246
227	0	2	0	14.7103	14.7103	8.95246
228	0	2	0	14.7103	2.27534	8.03314
229	0	2	0	23.2031	33.5115	10.7681
230	0	2	0	33.5115	27.7537	6.21746
231	0	2	0	27.7537	17.4453	10.7681
232	0	2	0	17.4453	23.2031	6.21746
233	0	2	0	23.2031	17.4453	6.21746
234	0	2	0	33.5115	23.2031	10.7681
235	0	2	0	27.7537	33.5115	6.21746
236	0	2	0	17.4453	27.7537	10.7681
237	0	2	0	27.7537	23.2031	16.5259
238	0	2	0	27.7537	27.7537	0.45966
239	0	2	0	23.2031	23.2031	0.45966
240	0	2	0	23.2031	27.7537	16.5259
241	0	2	0	31.6959	25.0187	2.27534
242	0	2	0	25.0187	19.2609	14.7103
243	0	2	0	19.2609	25.9381	2.27534
244	0	2	0	25.9381	31.6959	14.7103
245	0	2	0	31.6959	25.9381	14.7103
246	0	2	0	25.0187	31.6959	2.27534
247	0	2	0	19.2609	25.0187	14.7103
248	0	2	0	25.9381	19.2609	2.27534
249	0	2	0	19.2609	31.6959	8.03314
250	0	2	0	19.2609	19.2609	8.95246
251	0	2	0	31.6959	31.6959	8.95246
252	0	2	0	31.6959	19.2609	8.03314
253	0	2	0	6.21746	33.5115	10.7681
254	0	2	0	16.5259	27.7537	6.21746
255	0	2	0	10.7681	17.4453	10.7681
256	0	2	0	0.45966	23.2031	6.21746
257	0	2	0	6.21746	17.4453	6.21746
258	0	2	0	16.5259	23.2031	10.7681
259	0	2	0	10.7681	33.5115	6.21746
260	0	2	0	0.45966	27.7537	10.7681
261	0	2	0	10.7681	23.2031	16.5259
262	0	2	0	10.7681	27.7537	0.45966
263	0	2	0	6.21746	23.2031	0.45966
264	0	2	0	6.21746	27.7537	16.5259
265	0	2	0	23.2031	33.5115	27.7537
266	0	2	0	33.5115	27.7537	23.2031
267	0	2	0	27.7537	17.4453	27.7537
268	0	2	0	17.4453	23.2031	23.2031
269	0	2	0	23.2031	17.4453	23.2031
270	0	2	0	33.5115	23.2031	27.7537
271	0	2	0	27.7537	33.5115	23.2031
272	0	2	0	17.4453	27.7537	27.7537
273	0	2	0	27.7537	23.2031	33.5115
274	0	2	0	27.7537	27.7537	17.4453
275	0	2	0	23.2031	23.2031	17.4453
276	0	2	0	23.2031	27.7537	33.5115
277	0	2	0	31.6959	25.0187	19.2609
278	0	2	0	25.0187	19.2609	31.6959
279	0	2	0	19.2609	25.9381	19.2609
280	0	2	0	25.9381	31.6959	31.6959
281	0	2	0	31.6959	25.9381	31.6959
282	0	2	0	25.0187	31.6959	19.2609
283	0	2	0	19.2609	25.0187	31.6959
284	0	2	0	25.9381	19.2609	19.2609
285	0	2	0	19.2609	31.6959	25.0187
286	0	2	0	19.2609	19.2609	25.9381
287	0	2	0	31.6959	31.6959	25.9381
288	0	2	0	31.6959	19.2609	25.0187
289	0	2	0	14.7103	25.0187	2.27534
290	0	2	0	8.03314	19.2609	14.7103
291	0	2	0	2.27534	25.9381	2.27534
292	0	2	0	8.95246	31.6959	14.7103
293	0	2	0	14.7103	25.9381	14.7103
294	0	2	0	8.03314	31.6959	2.27534
295	0	2	0	2.27534	25.0187	14.7103
296	0	2	0	8.95246	19.2609	2.27534
297	0	2	0	2.27534	31.6959	8.03314
298	0	2	0	2.27534	19.2609	8.95246
299	0	2	0	14.7103	31.6959	8.95246
300	0	2	0	14.7103	19.2609	8.03314
301	0	2	0	6.21746	16.5259	10.7681
302	0	2	0	16.5259	10.7681	6.21746
303	0	2	0	10.7681	0.45966	10.7681
304	0	2	0	0.45966	6.21746	6.21746
305	0	2	0	6.21746	0.45966	6.21746
306	0	2	0	16.5259	6.21746	10.7681
307	0	2	0	10.7681	16.5259	6.21746
308	0	2	0	0.45966	10.7681	10.7681
309	0	2	0	10.7681	6.21746	16.5259
310	0	2	0	10.7681	10.7681	0.45966
311	0	2	0	6.21746	6.21746	0.45966
312	0	2	0	6.21746	10.7681	16.5259
313	0	2	0	42.0043	19.2609	14.7103
314	0	2	0	36.2465	25.9381	2.27534
315	0	2	0	36.2465	25.0187	14.7103
316	0	2	0	36.2465	19.2609	8.95246
317	0	2	0	40.1887	16.5259	10.7681
318	0	2	0	34.4309	6.21746	6.21746
319	0	2	0	34.4309	10.7681	10.7681
320	0	2	0	40.1887	10.7681	16.5259
321	0	2	0	34.4309	23.2031	23.2031
322	0	2	0	40.1887	17.4453	23.2031
323	0	2	0	34.4309	27.7537	27.7537
324	0	2	0	40.1887	23.2031	17.4453
325	0	2	0	36.2465	25.9381	19.2609
326	0	2	0	42.9237	19.2609	19.2609
327	0	2	0	36.2465	19.2609	25.9381
328	0	2	0	40.1887	16.5259	27.7537
329	0	2	0	34.4309	6.21746	23.2031
330	0	2	0	34.4309	10.7681	27.7537
331	0	2	0	44.7393	10.7681	17.4453
332	0	2	0	36.2465	8.95246	19.2609
333	0	2	0	42.0043	14.7103	19.2609
334	0	2	0	36.2465	14.7103	25.0187
335	0	2	0	36.2465	8.95246	2.27534
336	0	2	0	42.9237	14.7103	14.7103
337	0	2	0	36.2465	8.03314	14.7103
338	0	2	0	36.2465	14.7103	8.03314
339	0	2	0	34.4309	23.2031	6.21746
340	0	2	0	40.1887	17.4453	6.21746
341	0	2	0	34.4309	27.7537	10.7681
342	0	2	0	44.7393	23.2031	16.5259
343	0	2	0	6.21746	33.5115	27.7537
344	0	2	0	16.5259	27.7537	23.2031
345	0	2	0	10.7681	17.4453	27.7537
346	0	2	0	0.45966	23.2031	23.2031
347	0	2	0	6.21746	17.4453	23.2031
348	0	2	0	16.5259	23.2031	27.7537
349	0	2	0	10.7681	33.5115	23.2031
350	0	2	0	0.45966	27.7537	27.7537
351	0	2	0	-0.4597	10.7681	6.21746
352	0	2	0	-0.4597	6.21746	10.7681
353	0	2	0	-8.0331	14.7103	14.7103
354	0	2	0	-2.2753	8.95246	14.7103
355	0	2	0	-2.2753	14.7103	8.95246
356	0	2	0	-2.2753	2.27534	8.03314
357	0	2	0	-0.4597	10.7681	23.2031
358	0	2	0	-0.4597	6.21746	27.7537
359	0	2	0	-6.2175	16.5259	23.2031
360	0	2	0	-6.2175	10.7681	17.4453
361	0	2	0	-2.2753	8.03314	19.2609
362	0	2	0	-2.2753	8.95246	31.6959
363	0	2	0	-8.9525	14.7103	19.2609
364	0	2	0	-2.2753	14.7103	25.9381
365	0	2	0	-0.4597	27.7537	6.21746
366	0	2	0	-6.2175	17.4453	10.7681
367	0	2	0	-0.4597	23.2031	10.7681
368	0	2	0	-6.2175	23.2031	16.5259
369	0	2	0	-8.9525	19.2609	14.7103
370	0	2	0	-2.2753	25.9381	14.7103
371	0	2	0	-2.2753	31.6959	8.95246
372	0	2	0	-2.2753	19.2609	8.03314
373	0	2	0	-0.4597	27.7537	23.2031
374	0	2	0	-6.2175	17.4453	27.7537
375	0	2	0	-0.4597	23.2031	27.7537
376	0	2	0	-10.7681	23.2031	17.4453
377	0	2	0	-2.2753	25.0187	19.2609
378	0	2	0	-8.0331	19.2609	19.2609
379	0	2	0	-2.2753	31.6959	25.9381
380	0	2	0	-2.2753	19.2609	25.0187
381	0	2	0	10.7681	23.2031	33.5115
382	0	2	0	10.7681	27.7537	17.4453
383	0	2	0	6.21746	23.2031	17.4453
384	0	2	0	6.21746	27.7537	33.5115
385	0	2	0	14.7103	25.0187	19.2609
386	0	2	0	8.03314	19.2609	31.6959
387	0	2	0	2.27534	25.9381	19.2609
388	0	2	0	8.95246	31.6959	31.6959
389	0	2	0	14.7103	25.9381	31.6959
390	0	2	0	8.03314	31.6959	19.2609
391	0	2	0	2.27534	25.0187	31.6959
392	0	2	0	8.95246	19.2609	19.2609
393	0	2	0	2.27534	31.6959	25.0187
394	0	2	0	2.27534	19.2609	25.9381
395	0	2	0	14.7103	31.6959	25.9381
396	0	2	0	14.7103	19.2609	25.0187
397	0	2	0	6.21746	16.5259	27.7537
398	0	2	0	16.5259	10.7681	23.2031
399	0	2	0	10.7681	0.45966	27.7537
400	0	2	0	0.45966	6.21746	23.2031
401	0	2	0	6.21746	0.45966	23.2031
402	0	2	0	16.5259	6.21746	27.7537
403	0	2	0	10.7681	16.5259	23.2031
404	0	2	0	0.45966	10.7681	27.7537
405	0	2	0	10.7681	34.4309	10.7681
406	0	2	0	6.21746	34.4309	6.21746
407	0	2	0	16.5259	40.1887	10.7681
408	0	2	0	10.7681	40.1887	16.5259
409	0	2	0	16.5259	44.7393	23.2031
410	0	2	0	10.7681	34.4309	27.7537
411	0	2	0	6.21746	34.4309	23.2031
412	0	2	0	6.21746	40.1887	17.4453
413	0	2	0	27.7537	34.4309	10.7681
414	0	2	0	23.2031	34.4309	6.21746
415	0	2	0	17.4453	44.7393	10.7681
416	0	2	0	27.7537	40.1887	16.5259
417	0	2	0	25.0187	36.2465	14.7103
418	0	2	0	19.2609	42.0043	14.7103
419	0	2	0	19.2609	36.2465	8.95246
420	0	2	0	14.7103	42.0043	19.2609
421	0	2	0	8.95246	36.2465	19.2609
422	0	2	0	14.7103	36.2465	25.0187
423	0	2	0	27.7537	34.4309	27.7537
424	0	2	0	17.4453	40.1887	23.2031
425	0	2	0	23.2031	34.4309	23.2031
426	0	2	0	23.2031	40.1887	17.4453
427	0	2	0	19.2609	42.9237	19.2609
428	0	2	0	25.9381	36.2465	19.2609
429	0	2	0	19.2609	36.2465	25.9381
430	0	2	0	8.03314	36.2465	14.7103
431	0	2	0	14.7103	42.9237	14.7103
432	0	2	0	8.95246	36.2465	2.27534
433	0	2	0	14.7103	36.2465	8.03314
434	0	2	0	10.7681	6.21746	33.5115
435	0	2	0	10.7681	10.7681	17.4453
436	0	2	0	6.21746	6.21746	17.4453
437	0	2	0	6.21746	10.7681	33.5115
438	0	2	0	23.2031	16.5259	10.7681
439	0	2	0	33.5115	10.7681	6.21746
440	0	2	0	27.7537	0.45966	10.7681
441	0	2	0	17.4453	6.21746	6.21746
442	0	2	0	8.95246	-2.2753	14.7103
443	0	2	0	14.7103	-8.0331	14.7103
444	0	2	0	8.03314	-2.2753	2.27534
445	0	2	0	14.7103	-2.2753	8.95246
446	0	2	0	6.21746	-0.4597	27.7537
447	0	2	0	16.5259	-6.2175	23.2031
448	0	2	0	10.7681	-0.4597	23.2031
449	0	2	0	10.7681	-6.2175	17.4453
450	0	2	0	14.7103	-8.9525	19.2609
451	0	2	0	8.03314	-2.2753	19.2609
452	0	2	0	2.27534	-2.2753	25.0187
453	0	2	0	14.7103	-2.2753	25.9381
454	0	2	0	23.2031	-0.4597	10.7681
455	0	2	0	27.7537	-0.4597	6.21746
456	0	2	0	17.4453	-6.2175	10.7681
457	0	2	0	23.2031	-6.2175	16.5259
458	0	2	0	25.9381	-2.2753	14.7103
459	0	2	0	19.2609	-8.9525	14.7103
460	0	2	0	19.2609	-2.2753	8.03314
461	0	2	0	31.6959	-2.2753	8.95246
462	0	2	0	6.21746	-0.4597	10.7681
463	0	2	0	10.7681	-0.4597	6.21746
464	0	2	0	23.2031	-0.4597	27.7537
465	0	2	0	27.7537	-0.4597	23.2031
466	0	2	0	17.4453	-6.2175	27.7537
467	0	2	0	23.2031	-10.7681	17.4453
468	0	2	0	19.2609	-8.0331	19.2609
469	0	2	0	25.0187	-2.2753	19.2609
470	0	2	0	19.2609	-2.2753	25.0187
471	0	2	0	31.6959	-2.2753	25.9381
472	0	2	0	23.2031	0.45966	6.21746
473	0	2	0	33.5115	6.21746	10.7681
474	0	2	0	27.7537	16.5259	6.21746
475	0	2	0	17.4453	10.7681	10.7681
476	0	2	0	27.7537	6.21746	16.5259
477	0	2	0	27.7537	10.7681	0.45966
478	0	2	0	23.2031	6.21746	0.45966
479	0	2	0	23.2031	10.7681	16.5259
480	0	2	0	31.6959	8.03314	2.27534
481	0	2	0	25.0187	2.27534	14.7103
482	0	2	0	19.2609	8.95246	2.27534
483	0	2	0	25.9381	14.7103	14.7103
484	0	2	0	31.6959	8.95246	14.7103
485	0	2	0	25.0187	14.7103	2.27534
486	0	2	0	19.2609	8.03314	14.7103
487	0	2	0	25.9381	2.27534	2.27534
488	0	2	0	19.2609	14.7103	8.03314
489	0	2	0	19.2609	2.27534	8.95246
490	0	2	0	31.6959	14.7103	8.95246
491	0	2	0	31.6959	2.27534	8.03314
492	0	2	0	14.7103	8.03314	19.2609
493	0	2	0	8.03314	2.27534	31.6959
494	0	2	0	2.27534	8.95246	19.2609
495	0	2	0	8.95246	14.7103	31.6959
496	0	2	0	14.7103	25.0187	36.2465
497	0	2	0	2.27534	25.9381	36.2465
498	0	2	0	8.95246	19.2609	36.2465
499	0	2	0	14.7103	19.2609	42.0043
500	0	2	0	16.5259	10.7681	40.1887
501	0	2	0	10.7681	16.5259	40.1887
502	0	2	0	10.7681	10.7681	34.4309
503	0	2	0	6.21746	6.21746	34.4309
504	0	2	0	23.2031	16.5259	44.7393
505	0	2	0	17.4453	6.21746	40.1887
506	0	2	0	27.7537	10.7681	34.4309
507	0	2	0	23.2031	6.21746	34.4309
508	0	2	0	19.2609	8.95246	36.2465
509	0	2	0	25.0187	14.7103	36.2465
510	0	2	0	25.9381	2.27534	36.2465
511	0	2	0	19.2609	14.7103	42.0043
512	0	2	0	14.7103	8.03314	36.2465
513	0	2	0	8.03314	14.7103	36.2465
514	0	2	0	8.95246	2.27534	36.2465
515	0	2	0	14.7103	14.7103	42.9237
516	0	2	0	17.4453	23.2031	40.1887
517	0	2	0	23.2031	17.4453	40.1887
518	0	2	0	27.7537	27.7537	34.4309
519	0	2	0	23.2031	23.2031	34.4309
520	0	2	0	19.2609	25.9381	36.2465
521	0	2	0	25.9381	19.2609	36.2465
522	0	2	0	19.2609	19.2609	42.9237
523	0	2	0	16.5259	27.7537	40.1887
524	0	2	0	10.7681	17.4453	44.7393
525	0	2	0	10.7681	27.7537	34.4309
526	0	2	0	6.21746	23.2031	34.4309
527	0	2	0	14.7103	8.95246	31.6959
528	0	2	0	8.03314	14.7103	19.2609
529	0	2	0	2.27534	8.03314	31.6959
530	0	2	0	8.95246	2.27534	19.2609
531	0	2	0	2.27534	14.7103	25.0187
532	0	2	0	2.27534	2.27534	25.9381
533	0	2	0	14.7103	14.7103	25.9381
534	0	2	0	14.7103	2.27534	25.0187
535	0	2	0	10.7681	17.4453	-6.2175
536	0	2	0	16.5259	23.2031	-6.2175
537	0	2	0	10.7681	23.2031	-0.4597
538	0	2	0	6.21746	27.7537	-0.4597
539	0	2	0	8.03314	19.2609	-2.2753
540	0	2	0	14.7103	25.9381	-2.2753
541	0	2	0	2.27534	25.0187	-2.2753
542	0	2	0	14.7103	19.2609	-8.9525
543	0	2	0	10.7681	6.21746	-0.4597
544	0	2	0	6.21746	10.7681	-0.4597
545	0	2	0	8.95246	14.7103	-2.2753
546	0	2	0	14.7103	8.95246	-2.2753
547	0	2	0	2.27534	8.03314	-2.2753
548	0	2	0	14.7103	14.7103	-8.0331
549	0	2	0	23.2031	16.5259	-6.2175
550	0	2	0	17.4453	10.7681	-6.2175
551	0	2	0	27.7537	6.21746	-0.4597
552	0	2	0	23.2031	10.7681	-0.4597
553	0	2	0	25.0187	2.27534	-2.2753
554	0	2	0	25.9381	14.7103	-2.2753
555	0	2	0	19.2609	8.03314	-2.2753
556	0	2	0	19.2609	14.7103	-8.9525
557	0	2	0	23.2031	17.4453	-10.7681
558	0	2	0	17.4453	27.7537	-6.2175
559	0	2	0	27.7537	23.2031	-0.4597
560	0	2	0	23.2031	27.7537	-0.4597
561	0	2	0	25.0187	19.2609	-2.2753
562	0	2	0	25.9381	31.6959	-2.2753
563	0	2	0	19.2609	25.0187	-2.2753
564	0	2	0	19.2609	19.2609	-8.0331
565	0	2	0	36.2465	8.03318	31.6959
566	0	2	0	36.2465	31.6959	25.0187
567	0	2	0	-10.7681	10.7681	16.5259
568	0	2	0	-6.2175	16.5259	6.2175
569	0	2	0	8.03318	36.2465	31.6959
570	0	2	0	31.6959	36.2465	8.03318
571	0	2	0	25.0187	36.2465	31.6959
572	0	2	0	10.7681	-10.7681	16.5259
573	0	2	0	16.5259	-6.2175	6.2175
574	0	2	0	31.6959	25.0187	36.2465
575	0	2	0	10.7681	16.5259	-10.7681
576	0	2	0	16.5259	6.2175	-6.2175

Bonds

1	1	1	218
2	1	1	303
3	1	1	442
4	1	1	462
5	1	2	219
6	1	2	304
7	1	2	351
8	1	3	224
9	1	3	305
10	1	3	444
11	1	3	463
12	1	4	223
13	1	4	308
14	1	4	352
15	1	4	354
16	1	5	217
17	1	5	310
18	1	5	543
19	1	5	546
20	1	6	226
21	1	6	305
22	1	6	462
23	1	7	219
24	1	7	311
25	1	7	544
26	1	7	547
27	1	8	228
28	1	8	303
29	1	8	445
30	1	8	463
31	1	9	224
32	1	9	311
33	1	9	543
34	1	10	225
35	1	10	308
36	1	10	351
37	1	10	355
38	1	11	222
39	1	11	310
40	1	11	544
41	1	11	545
42	1	12	226
43	1	12	304
44	1	12	352
45	1	12	356
46	1	13	399
47	1	13	446
48	1	13	493
49	1	14	357
50	1	14	361
51	1	14	400
52	1	14	494
53	1	15	401
54	1	15	448
55	1	15	451
56	1	15	530
57	1	16	358
58	1	16	362
59	1	16	404
60	1	16	529
61	1	17	221
62	1	17	309
63	1	17	435
64	1	17	492
65	1	18	401
66	1	18	446
67	1	18	452
68	1	18	532
69	1	19	223
70	1	19	312
71	1	19	436
72	1	19	494
73	1	20	399
74	1	20	448
75	1	20	453
76	1	20	534
77	1	21	218
78	1	21	309
79	1	21	436
80	1	21	530
81	1	22	357
82	1	22	364
83	1	22	404
84	1	22	531
85	1	23	220
86	1	23	312
87	1	23	435
88	1	23	528
89	1	24	358
90	1	24	400
91	1	24	532
92	1	25	220
93	1	25	255
94	1	25	290
95	1	25	301
96	1	26	256
97	1	26	291
98	1	26	365
99	1	27	222
100	1	27	257
101	1	27	296
102	1	27	307
103	1	28	260
104	1	28	295
105	1	28	367
106	1	28	370
107	1	29	262
108	1	29	289
109	1	29	537
110	1	29	540
111	1	30	225
112	1	30	257
113	1	30	298
114	1	30	301
115	1	31	263
116	1	31	291
117	1	31	538
118	1	31	541
119	1	32	227
120	1	32	255
121	1	32	300
122	1	32	307
123	1	33	263
124	1	33	296
125	1	33	537
126	1	33	539
127	1	34	260
128	1	34	297
129	1	34	365
130	1	34	371
131	1	35	262
132	1	35	294
133	1	35	538
134	1	36	256
135	1	36	298
136	1	36	367
137	1	36	372
138	1	37	345
139	1	37	386
140	1	37	397
141	1	37	495
142	1	38	346
143	1	38	373
144	1	38	377
145	1	38	387
146	1	39	347
147	1	39	392
148	1	39	403
149	1	39	528
150	1	40	350
151	1	40	375
152	1	40	391
153	1	41	261
154	1	41	293
155	1	41	382
156	1	41	385
157	1	42	347
158	1	42	394
159	1	42	397
160	1	42	531
161	1	43	264
162	1	43	295
163	1	43	383
164	1	43	387
165	1	44	345
166	1	44	396
167	1	44	403
168	1	44	533
169	1	45	261
170	1	45	290
171	1	45	383
172	1	45	392
173	1	46	350
174	1	46	373
175	1	46	379
176	1	46	393
177	1	47	264
178	1	47	292
179	1	47	382
180	1	47	390
181	1	48	346
182	1	48	375
183	1	48	380
184	1	48	394
185	1	49	440
186	1	49	454
187	1	49	458
188	1	49	481
189	1	50	217
190	1	50	302
191	1	50	441
192	1	50	482
193	1	51	455
194	1	51	472
195	1	51	487
196	1	52	221
197	1	52	306
198	1	52	475
199	1	52	486
200	1	53	477
201	1	53	480
202	1	53	551
203	1	54	454
204	1	54	460
205	1	54	472
206	1	54	489
207	1	55	478
208	1	55	482
209	1	55	552
210	1	55	555
211	1	56	440
212	1	56	455
213	1	56	461
214	1	56	491
215	1	57	478
216	1	57	487
217	1	57	551
218	1	57	553
219	1	58	227
220	1	58	302
221	1	58	475
222	1	58	488
223	1	59	477
224	1	59	485
225	1	59	552
226	1	59	554
227	1	60	228
228	1	60	306
229	1	60	441
230	1	60	489
231	1	61	195
232	1	61	206
233	1	61	464
234	1	62	196
235	1	62	207
236	1	62	398
237	1	62	492
238	1	63	197
239	1	63	212
240	1	63	465
241	1	63	469
242	1	64	200
243	1	64	211
244	1	64	402
245	1	64	527
246	1	65	202
247	1	65	205
248	1	65	476
249	1	65	484
250	1	66	197
251	1	66	214
252	1	66	464
253	1	66	470
254	1	67	203
255	1	67	207
256	1	67	479
257	1	67	486
258	1	68	195
259	1	68	216
260	1	68	465
261	1	68	471
262	1	69	203
263	1	69	212
264	1	69	476
265	1	69	481
266	1	70	200
267	1	70	213
268	1	70	398
269	1	70	533
270	1	71	202
271	1	71	210
272	1	71	479
273	1	71	483
274	1	72	196
275	1	72	214
276	1	72	402
277	1	72	534
278	1	73	231
279	1	73	242
280	1	73	438
281	1	73	483
282	1	74	232
283	1	74	243
284	1	74	254
285	1	74	289
286	1	75	233
287	1	75	248
288	1	75	474
289	1	75	485
290	1	76	236
291	1	76	247
292	1	76	258
293	1	76	293
294	1	77	238
295	1	77	241
296	1	77	559
297	1	78	233
298	1	78	250
299	1	78	438
300	1	78	488
301	1	79	239
302	1	79	243
303	1	79	560
304	1	79	563
305	1	80	231
306	1	80	252
307	1	80	474
308	1	80	490
309	1	81	239
310	1	81	248
311	1	81	559
312	1	81	561
313	1	82	236
314	1	82	249
315	1	82	254
316	1	82	299
317	1	83	238
318	1	83	246
319	1	83	560
320	1	83	562
321	1	84	232
322	1	84	250
323	1	84	258
324	1	84	300
325	1	85	193
326	1	85	208
327	1	85	267
328	1	85	278
329	1	86	268
330	1	86	279
331	1	86	344
332	1	86	385
333	1	87	199
334	1	87	210
335	1	87	269
336	1	87	284
337	1	88	272
338	1	88	283
339	1	88	348
340	1	88	389
341	1	89	237
342	1	89	245
343	1	89	274
344	1	89	277
345	1	90	193
346	1	90	213
347	1	90	269
348	1	90	286
349	1	91	240
350	1	91	247
351	1	91	275
352	1	91	279
353	1	92	199
354	1	92	215
355	1	92	267
356	1	92	288
357	1	93	237
358	1	93	242
359	1	93	275
360	1	93	284
361	1	94	272
362	1	94	285
363	1	94	344
364	1	94	395
365	1	95	240
366	1	95	244
367	1	95	274
368	1	95	282
369	1	96	268
370	1	96	286
371	1	96	348
372	1	96	396
373	1	97	318
374	1	97	335
375	1	97	439
376	1	97	480
377	1	98	319
378	1	98	337
379	1	98	473
380	1	98	484
381	1	99	319
382	1	99	338
383	1	99	439
384	1	99	490
385	1	100	318
386	1	100	473
387	1	100	491
388	1	101	194
389	1	101	205
390	1	101	329
391	1	101	332
392	1	102	198
393	1	102	209
394	1	102	330
395	1	102	565
396	1	103	320
397	1	103	332
398	1	103	337
399	1	104	194
400	1	104	215
401	1	104	330
402	1	104	334
403	1	105	320
404	1	105	331
405	1	105	333
406	1	105	336
407	1	106	198
408	1	106	216
409	1	106	329
410	1	107	313
411	1	107	317
412	1	107	336
413	1	108	230
414	1	108	241
415	1	108	314
416	1	108	339
417	1	109	234
418	1	109	245
419	1	109	315
420	1	109	341
421	1	110	316
422	1	110	317
423	1	110	338
424	1	110	340
425	1	111	230
426	1	111	251
427	1	111	341
428	1	112	234
429	1	112	252
430	1	112	316
431	1	112	339
432	1	113	266
433	1	113	277
434	1	113	321
435	1	113	325
436	1	114	322
437	1	114	326
438	1	114	333
439	1	115	270
440	1	115	281
441	1	115	323
442	1	116	322
443	1	116	327
444	1	116	328
445	1	116	334
446	1	117	315
447	1	117	324
448	1	117	325
449	1	118	313
450	1	118	324
451	1	118	326
452	1	118	342
453	1	119	266
454	1	119	287
455	1	119	323
456	1	119	566
457	1	120	270
458	1	120	288
459	1	120	321
460	1	120	327
461	1	121	354
462	1	121	360
463	1	121	361
464	1	122	353
465	1	122	360
466	1	122	363
467	1	122	567
468	1	123	353
469	1	123	366
470	1	123	369
471	1	124	355
472	1	124	366
473	1	124	372
474	1	124	568
475	1	125	359
476	1	125	363
477	1	125	378
478	1	126	368
479	1	126	370
480	1	126	377
481	1	127	359
482	1	127	364
483	1	127	374
484	1	127	380
485	1	128	368
486	1	128	369
487	1	128	376
488	1	128	378
489	1	129	253
490	1	129	292
491	1	129	405
492	1	129	430
493	1	130	259
494	1	130	294
495	1	130	406
496	1	130	432
497	1	131	253
498	1	131	297
499	1	131	406
500	1	132	259
501	1	132	299
502	1	132	405
503	1	132	433
504	1	133	343
505	1	133	388
506	1	133	410
507	1	133	569
508	1	134	349
509	1	134	390
510	1	134	411
511	1	134	421
512	1	135	408
513	1	135	420
514	1	135	431
515	1	136	343
516	1	136	393
517	1	136	411
518	1	137	349
519	1	137	395
520	1	137	410
521	1	137	422
522	1	138	408
523	1	138	412
524	1	138	421
525	1	138	430
526	1	139	229
527	1	139	244
528	1	139	413
529	1	139	417
530	1	140	235
531	1	140	246
532	1	140	414
533	1	141	407
534	1	141	415
535	1	141	418
536	1	141	431
537	1	142	229
538	1	142	249
539	1	142	414
540	1	142	419
541	1	143	235
542	1	143	251
543	1	143	413
544	1	143	570
545	1	144	407
546	1	144	419
547	1	144	433
548	1	145	265
549	1	145	280
550	1	145	423
551	1	145	571
552	1	146	409
553	1	146	420
554	1	146	424
555	1	146	427
556	1	147	271
557	1	147	282
558	1	147	425
559	1	147	428
560	1	148	265
561	1	148	285
562	1	148	425
563	1	148	429
564	1	149	418
565	1	149	426
566	1	149	427
567	1	150	271
568	1	150	287
569	1	150	423
570	1	151	416
571	1	151	417
572	1	151	426
573	1	151	428
574	1	152	422
575	1	152	424
576	1	152	429
577	1	153	443
578	1	153	449
579	1	153	450
580	1	153	572
581	1	154	442
582	1	154	449
583	1	154	451
584	1	155	443
585	1	155	456
586	1	155	459
587	1	156	445
588	1	156	456
589	1	156	460
590	1	156	573
591	1	157	447
592	1	157	450
593	1	157	468
594	1	158	457
595	1	158	459
596	1	158	467
597	1	158	468
598	1	159	447
599	1	159	453
600	1	159	466
601	1	159	470
602	1	160	457
603	1	160	458
604	1	160	469
605	1	161	434
606	1	161	502
607	1	161	512
608	1	161	527
609	1	162	437
610	1	162	503
611	1	162	529
612	1	163	434
613	1	163	493
614	1	163	503
615	1	163	514
616	1	164	437
617	1	164	495
618	1	164	502
619	1	164	513
620	1	165	498
621	1	165	501
622	1	165	513
623	1	166	381
624	1	166	389
625	1	166	496
626	1	166	525
627	1	167	384
628	1	167	391
629	1	167	497
630	1	167	526
631	1	168	499
632	1	168	501
633	1	168	515
634	1	168	524
635	1	169	381
636	1	169	386
637	1	169	498
638	1	169	526
639	1	170	384
640	1	170	388
641	1	170	525
642	1	171	500
643	1	171	505
644	1	171	508
645	1	171	512
646	1	172	201
647	1	172	209
648	1	172	506
649	1	173	204
650	1	173	211
651	1	173	507
652	1	173	508
653	1	174	201
654	1	174	206
655	1	174	507
656	1	174	510
657	1	175	500
658	1	175	511
659	1	175	515
660	1	176	204
661	1	176	208
662	1	176	506
663	1	176	509
664	1	177	496
665	1	177	516
666	1	177	520
667	1	177	523
668	1	178	509
669	1	178	517
670	1	178	521
671	1	179	273
672	1	179	281
673	1	179	518
674	1	179	574
675	1	180	504
676	1	180	511
677	1	180	517
678	1	180	522
679	1	181	276
680	1	181	283
681	1	181	519
682	1	181	520
683	1	182	273
684	1	182	278
685	1	182	519
686	1	182	521
687	1	183	276
688	1	183	280
689	1	183	518
690	1	184	499
691	1	184	516
692	1	184	522
693	1	185	535
694	1	185	539
695	1	185	545
696	1	186	535
697	1	186	542
698	1	186	548
699	1	186	575
700	1	187	546
701	1	187	550
702	1	187	555
703	1	187	576
704	1	188	548
705	1	188	550
706	1	188	556
707	1	189	549
708	1	189	554
709	1	189	561
710	1	190	536
711	1	190	540
712	1	190	558
713	1	190	563
714	1	191	549
715	1	191	556
716	1	191	557
717	1	191	564
718	1	192	536
719	1	192	542
720	1	192	564

Angles

1	1	1	218	21
2	1	1	303	8
3	1	1	442	154
4	1	1	462	6
5	1	2	219	7
6	1	2	304	12
7	1	2	351	10
8	1	3	224	9
9	1	3	305	6
10	1	3	463	8
11	1	4	223	19
12	1	4	308	10
13	1	4	352	12
14	1	4	354	121
15	1	5	217	50
16	1	5	310	11
17	1	5	543	9
18	1	5	546	187
19	1	6	226	12
20	1	7	311	9
21	1	7	544	11
22	1	8	228	60
23	1	8	445	156
24	1	10	225	30
25	1	10	355	124
26	1	11	222	27
27	1	11	545	185
28	1	13	399	20
29	1	13	446	18
30	1	13	493	163
31	1	14	357	22
32	1	14	361	121
33	1	14	400	24
34	1	14	494	19
35	1	15	401	18
36	1	15	448	20
37	1	15	451	154
38	1	15	530	21
39	1	16	358	24
40	1	16	404	22
41	1	16	529	162
42	1	17	221	52
43	1	17	309	21
44	1	17	435	23
45	1	17	492	62
46	1	18	532	24
47	1	19	312	23
48	1	19	436	21
49	1	20	453	159
50	1	20	534	72
51	1	22	364	127
52	1	22	531	42
53	1	23	220	25
54	1	23	528	39
55	1	25	255	32
56	1	25	290	45
57	1	25	301	30
58	1	26	256	36
59	1	26	291	31
60	1	26	365	34
61	1	27	257	30
62	1	27	296	33
63	1	27	307	32
64	1	28	260	34
65	1	28	295	43
66	1	28	367	36
67	1	28	370	126
68	1	29	262	35
69	1	29	289	74
70	1	29	537	33
71	1	29	540	190
72	1	30	298	36
73	1	31	263	33
74	1	31	538	35
75	1	32	227	58
76	1	32	300	84
77	1	33	539	185
78	1	34	297	131
79	1	35	294	130
80	1	36	372	124
81	1	37	345	44